ITEM: TIMESTEP
       0
ITEM: NUMBER OF ATOMS
    1000
ITEM: BOX BOUNDS pp pp pp
             0.0000000000            14.1898341197
             0.0000000000            14.1898341197
             0.0000000000            14.1898341197
ITEM: ATOMS id type x y z
        1  1             9.3002492624             2.8520883404            12.6803534464
        2  1             3.9999232876             7.4496683471             4.4574068297
        3  1             6.3090227221             4.2494928485             8.3554177900
        4  1             8.3914070133            11.9469823507             9.9955889857
        5  1             3.0890330283             4.3686977370             3.7176356041
        6  1             6.1001066566             2.7469458205             7.8173229772
        7  1            10.5574973505             8.4431927583             6.1184263319
        8  1            12.2248944373             6.6006025748             5.5583855354
        9  1             1.5544047832             7.7097693102             1.1961236559
       10  1             3.7213297335            13.6865841765             7.6076979102
       11  1             9.0235342321             7.7155418846             6.8378535474
       12  1            13.7282053368             8.5528841014             2.2730762281
       13  1             2.6624216674             8.8390791830            12.4020257447
       14  1             0.5090673440             7.3990119233            13.4523902164
       15  1             9.5316451838             5.9448677515            11.4394747837
       16  1             6.3868462290            12.3471272582            12.0620966108
       17  1             8.1773986251            11.1156836883             5.8352520330
       18  1             5.1276723923            10.9210020748             0.1815782801
       19  1            11.6214387660            13.3750263051             2.3420537016
       20  1             0.7928129210             2.9493394417             9.5913899042
       21  1            10.2470634679            12.5064210311             1.6539679101
       22  1             4.1654124853             9.4658104506             3.3177723744
       23  1            10.9143103159             2.7819996837             2.8725284722
       24  1             0.3381165545            12.4768158416             1.5926902993
       25  1             6.5408483857             4.4299508334             9.5839707810
       26  1             3.8762999052             2.1303611318             6.0967695191
       27  1            13.7767450308             5.5395801709             7.0508285245
       28  1             9.8402926996            11.7025846820             7.8577010787
       29  1            13.2183218085             3.4258039402             9.0240158113
       30  1            11.0787912975             7.5243696636             1.0929282209
       31  1             7.8525247396            11.4193583478             4.5546818044
       32  1             2.8505194184            13.7446562743            10.7573855927
       33  1             7.4894046602             2.1436069593             5.5010977532
       34  1             9.2514992599             4.4427709693             0.6383646683
       35  1             1.2194266673            12.9067174984            14.1588793229
       36  1             4.6721246358             5.7448467747             6.8727308870
       37  1             3.1154036179             2.3069500233             5.8222577788
       38  1            10.1926985628             3.3065683326            13.3853086250
       39  1             8.0120170264             7.0324638247             5.8780887841
       40  1             4.3134504852             3.6266683447             1.3040957462
       41  1             6.8662493969            10.1762527793             5.4042763083
       42  1             6.7137174307             7.3774564191            10.4079714715
       43  1             1.9737381605             7.1701792639             0.7217923799
       44  1             3.6052025196             6.6196704152             3.8563023146
       45  1            12.5611062886             9.5768923618            10.8073749405
       46  1            11.4465649447            10.7043354593             8.9105303980
       47  1            12.7497957421             1.0521336454             2.2447908916
       48  1            13.8606731998             2.2391289690             3.4414618928
       49  1             2.3932987222             1.8695461917             6.1828814591
       50  1            10.1972222241            12.9287646520             6.7479780579
       51  1             5.2399871402            12.8041590150             1.2878770613
       52  1             1.0378978389             4.3087896952            12.8781418678
       53  1            10.6823755136            10.0075219709            11.1491676450
       54  1             0.1628575729             3.1765644119             9.5681070660
       55  1             9.3266016545             9.2747660547             1.8701219366
       56  1            13.8769653487             6.1269406610            14.0873855414
       57  1            13.7784441501             7.9537097290             1.0410575939
       58  1            13.5303676421             0.7813645611             5.3042211884
       59  1             9.7418037530            12.7594276968             5.0704376762
       60  1            12.9947568853             1.3764915786             4.2959502915
       61  1             0.7849479330             5.3467591876            13.7258709508
       62  1             8.6248404585            11.7107824845             0.7595068755
       63  1             5.0819352830             6.7632911041             1.6639229462
       64  1             1.1553771049             7.3480286254            14.0820545237
       65  1            11.3870313985             0.1188449563             8.2827731530
       66  1            11.6047461733             5.4274799273             4.9737860877
       67  1             2.9139670365            13.7649121185             3.2665433443
       68  1             1.6214972178             6.6905092326             7.9396066440
       69  1            12.4153427169             8.8278778041             8.2720105687
       70  1             7.9653381344             2.7114501099             8.0574698941
       71  1             6.5716600672            12.3008183817             8.6287955243
       72  1             2.1186315104             7.5041270082             8.1896086760
       73  1             7.7715651595             2.1935425407            12.5063445343
       74  1             8.4740699349             1.0946142636             1.8503364980
       75  1            13.9569970684            10.5159965090             0.8101957429
       76  1             0.6028464520             9.4476914961             3.8062272721
       77  1            13.6407848561             8.1320646026            10.1553227823
       78  1             7.3370173818             8.1783092394             1.2007662814
       79  1            13.3505603461             5.8179339530             5.6035011615
       80  1            12.1773042702            12.5627856510            12.4203816035
       81  1             1.6002283140             2.2589836227             5.5603215325
       82  1             9.1435624347             6.7301168152            11.4932108117
       83  1            14.0874790068             7.8369595849             3.6844005380
       84  1             5.2349328445            14.1624931693             9.3345799110
       85  1             7.1892501637             9.1108248195             6.3194755592
       86  1            10.0348592342             8.9797916109             9.5423344032
       87  1             6.3425818871            13.0212456925             7.8258672323
       88  1            13.5195311446             7.8531641163             8.6055764037
       89  1             8.0252625764            13.4808816524            11.9146282967
       90  1             1.9383245897            10.0877029444            13.9994719908
       91  1            12.5791047128             9.7680561514            11.3155497684
       92  1            10.1519566173            12.2895431490             9.7726106770
       93  1            10.2365733504             5.7688363348             9.3934777412
       94  1            12.4522535497             2.6626115252            11.9037932199
       95  1             4.8556576260             6.1337846141             3.8938769922
       96  1             1.8952584868             8.7319293231             9.8284013228
       97  1             9.7658605329             7.1900630971             4.8166318805
       98  1             0.2567298952             2.7285732377            13.6894279203
       99  1             8.8527660386             5.2544644169             1.9307884978
      100  1             8.2556646534             7.3147395946             2.8108309977
      101  1             4.7834208730             5.2396086140             0.6770169490
      102  1             9.6072447451             4.4038695667             5.7678454705
      103  1            11.4064085235             3.1387944450             7.9759492711
      104  1             5.7020321064            10.3165629727             0.2315183745
      105  1             7.6848375180             4.3968602174             3.9458282855
      106  1             1.2197337648             2.2719804143             7.2732661418
      107  1             5.1198924448            14.0967894461             0.7557402998
      108  1             7.5901230962            13.3277541909             5.1878127923
      109  1            13.2092073985            11.4118767030             3.4278886096
      110  1             2.7769221819            11.5595648472            10.6860106829
      111  1            11.8669932173             7.4377600745            12.2693705216
      112  1            11.3275454604            12.2169950829             7.3494890695
      113  1            12.1478741373            13.4703505343            11.5721465722
      114  1             3.0320779549             3.1641224983             1.1323506041
      115  1             4.1529085919             1.7313349535             6.7612714474
      116  1             1.1913554387             7.0623624602             8.6992117225
      117  1            12.7156420135            10.5855837767             7.5746579815
      118  1            12.7693794357             8.5471703087            13.3008927449
      119  1             8.9601407306             1.9589268668            13.3388002700
      120  1            10.0700153113            12.7662392327             0.2448411085
      121  1             8.1811153460             4.8062154120             9.5581002589
      122  1             8.8452140817            10.3863622471            11.4467367306
      123  1             4.1988962834             7.3787917340            12.0832738928
      124  1             8.9223118168             2.8589225142             3.7228651018
      125  1             2.7898516679             4.5971956261             7.3523887933
      126  1             2.9074871852             4.3800938568             4.4165874557
      127  1             2.9990224849             8.7178864734             7.3378309693
      128  1             9.9764328603            11.7698487835             4.8238907218
      129  1             9.4957765239             4.5521895813             9.3629925440
      130  1             8.7774574256             1.6073485002             3.7175287847
      131  1             3.5705778567             7.0422444120            13.9592770403
      132  1             7.8221741007            11.0122800460             3.5181832095
      133  1             1.1199430305             6.2146355180             2.8168186910
      134  1             0.8165919282             5.6452322204            11.8498988659
      135  1             9.0437353583            12.4793793283            13.2062142291
      136  1             0.5270075349             5.4555755712             7.1656964446
      137  1             5.9998711610            11.8678755576             9.8762690379
      138  1             9.8733389255             4.2711391485             6.1517800781
      139  1            13.2718262777             7.1459080524             1.2141427159
      140  1            13.3551696756             8.1958973084             2.8788334123
      141  1             6.5918616692             6.2165104076             3.4269944681
      142  1             5.4334952208             9.3901512948             5.8005643265
      143  1             6.7497268403            14.0715280971             1.2006823774
      144  1             9.7924171081             5.8572837181             9.4496828720
      145  1             1.5404975028             8.2610951692             2.3924721638
      146  1            10.7851042301             5.0189493947             6.8498573139
      147  1             6.6554226020             5.0038643523             8.9996730983
      148  1             6.2149410759             9.8714313016             2.0665388530
      149  1             3.5610200135             9.2229105064            11.6396695881
      150  1            12.8024038760             5.1169126956             2.5531816008
      151  1             8.2816098354             9.4713173113            12.1034949015
      152  1             3.8472195553            13.1622225059             9.5850681211
      153  1             4.0185350543             3.6784419779             0.7414174242
      154  1             5.4915622637             3.1425344117             0.3709108635
      155  1             7.8217587104             5.8412163815            12.6739655802
      156  1            12.1592345097             2.8740064464             3.1374841071
      157  1             6.1995681776             2.6723461959            12.8422463477
      158  1             2.6852892408            13.6408262399            12.2870575204
      159  1             1.3709787049             2.6709940579             4.6763983955
      160  1             1.9450862246            13.5109655071            13.3640577271
      161  1             5.7536767713             8.7305950919             6.1084719698
      162  1             7.9781528255             2.2237420823             8.1724353829
      163  1             5.8226498507            13.4839624723             3.8557226381
      164  1            10.3406812566            10.4673194286             0.4487951872
      165  1            11.9054918700             9.0808600016            11.4415901655
      166  1             7.1998256852            10.4503698971            11.5873088514
      167  1            11.1469398471             9.7752380531            14.1227957291
      168  1             8.8655940772            11.4523040514             5.6910958928
      169  1             1.5864309124             5.5058939539             5.2056588572
      170  1             1.5560898612             3.9729828801            10.8779058080
      171  1            12.6238639749             3.3689620229            11.6250451457
      172  1            10.7421691372             1.8979217293             5.9403685848
      173  1             5.4606631629             2.8416548703             1.0631980674
      174  1             9.2477903558             6.8687301359            11.0117201000
      175  1            13.0153603518             2.3315991597             1.3086579631
      176  1             2.5383812956            11.7522123069             4.1662564351
      177  1             8.5463124961             1.5962705854            10.9001752365
      178  1            12.0887574681            10.1767207204             5.3619018817
      179  1            10.9701078732             4.3432312071            13.9580145616
      180  1             0.1271860128             2.6334241114             9.8750135171
      181  1             6.0092950472             8.9541586671             9.7183903872
      182  1             7.3132224700             1.8704987382             3.5268447043
      183  1             2.4685050024            11.2595036641             1.1721480248
      184  1            10.4273031293             1.9226326209             3.5043021880
      185  1             5.6324111595             8.0980999786             3.1617818219
      186  1            10.8092411608             9.7016211390            13.7238334733
      187  1             6.1464263895            10.3605348994             9.3197181017
      188  1             9.0030549036            10.7781120408             1.2870730813
      189  1             9.8289398997             6.5742795537            11.5379458698
      190  1             5.4702659382             9.5886843132            13.0908448077
      191  1             8.0711541066             0.0702023943            10.2375294056
      192  1            12.1238954072            10.0003266623             2.0589443626
      193  1             7.2844806832             8.2833627740             2.8548732761
      194  1            10.6492646583             2.7037258716             9.1069608138
      195  1             4.1938922455             7.0554004679             8.6755319029
      196  1             6.6237031936            12.7961751156             3.9861580057
      197  1             3.7838104400            14.0337704667            11.2130041171
      198  1             7.7403244032             0.3790018664             5.4712540273
      199  1             7.8054509278             5.6424243958             5.7944480218
      200  1             0.4598443786            13.5926539712             4.4022233616
      201  1             3.3260551910             6.3455116692            11.6691091898
      202  1             3.3198598653             5.0251717391             5.9292382977
      203  1             5.3717941715             1.4188880417             9.5943447293
      204  1             9.9967842579             4.9613823928             1.3467030530
      205  1            11.7167470113            13.7848801002            13.6840925481
      206  1             1.4475238549             9.2107374451            13.6407992740
      207  1            11.9560445206            11.7245391632             2.7760139000
      208  1             8.3196690392             5.8435335083             1.9402779980
      209  1            10.0670584906             0.8730181116             9.2187322670
      210  1             1.5223002938             3.2770048572             2.3309387376
      211  1            11.6569406746             5.4480437346            12.0275234943
      212  1             0.5643484469             2.8933659092            10.5524251480
      213  1            13.4255644452             3.7251185506            11.8819881180
      214  1             9.4819130588             9.0453849003            12.9018036353
      215  1             8.4275824998            12.4644792343             8.8186708605
      216  1             1.9670410692             6.5883104700             7.9692130757
      217  1            12.2787330029             7.4095836190             7.6406023423
      218  1            13.5831977339             4.0679828981            12.3360262364
      219  1            14.1381742439             9.4519672314            12.6897168857
      220  1             3.2272930772            11.2131679341             9.6990868582
      221  1             3.1083463630            10.3904368718             2.3021421006
      222  1             9.7738011785            13.3262593473             8.1347014673
      223  1            11.3706983019            13.8269343792             5.9767775000
      224  1             8.5192196302            12.6788404251            12.8151582988
      225  1             6.9874719137            13.1105126101            11.4336378111
      226  1             4.3734541860             5.9587684440             7.7641590006
      227  1             5.6519919523            12.0471200993             1.6397689743
      228  1             0.3897800843             1.6993692844             7.9948074572
      229  1             3.8621013725             9.1411033292            11.1529621513
      230  1             9.6341658053             8.9689881451             4.9108846650
      231  1             2.7865916219            12.6501246328             9.0654273767
      232  1             2.2920600125             1.3844930610             8.4331646349
      233  1             4.4736204598             8.1829448212             8.5372039999
      234  1             6.7571991221            12.6011601193             7.1863994356
      235  1             9.0503887135            10.9206186523             3.2207401914
      236  1             3.2200526119             6.0638886763             4.0436681223
      237  1            10.8947349281             1.0899389963             2.9180147351
      238  1             7.4828322884             6.0709386297             8.7822147931
      239  1             3.7358673381             6.4187064267            12.9095376199
      240  1             2.5133402789             4.8825952318            13.2430746388
      241  1            12.0779255894             2.9813509481            13.7285706213
      242  1            12.5427232525             8.5916149207             4.0415096916
      243  1            12.3984250872             4.8299269483             6.0603316227
      244  1             9.8599675062             9.4134797853             2.3404666878
      245  1             8.8429266497             8.4157782779             3.6736650650
      246  1            10.6192303081             6.0730486858             3.8104786252
      247  1             0.0788026890             9.0109630132             7.6661253744
      248  1             7.1765640774             4.6698257660             6.9691053967
      249  1             9.3629973081             9.8866418497             1.7329264076
      250  1             0.0402534613             7.8322168865            10.7541180271
      251  1             6.3690102011             2.2159830745             6.9710723243
      252  1             0.0583473331            12.6045010034             8.8800378795
      253  1             2.9359208041            10.3871327461             3.5264615858
      254  1            12.9046472998             4.3498579533            13.5515781143
      255  1            13.6337532522            10.0868736504             0.2758433747
      256  1             9.3750258533             8.4925557399             8.4610863587
      257  1            10.5986085517             4.7118544932            13.8939232718
      258  1             6.8087960269             0.8329960042             5.7811582137
      259  1            13.3493561734            10.2746435163             0.6646709257
      260  1            13.0603949681             8.0567044566            10.3372305532
      261  1             6.5409419104             9.4827058257             6.4904542131
      262  1             1.5888273905            13.6855848279             1.1587414990
      263  1             1.9885154050             3.2416851944            10.3668201355
      264  1             0.4005353407             5.6942977980             4.0033351907
      265  1            12.9220447444             6.6120289576             0.2255018454
      266  1             5.0972975760             3.2559120079             2.8688123724
      267  1            10.0383349608             0.5945627698            11.0301589245
      268  1             2.8818679720            11.0775547076             4.7694965977
      269  1             4.6619765438             8.2287862455             5.1495916414
      270  1             6.7758906961             0.8848888263            13.2889934653
      271  1             6.8582772592             6.2837124764             5.4924617508
      272  1             3.3426717890             4.3915415295             7.4596857529
      273  1            12.8724721481            13.4538925200             9.3795192647
      274  1            10.0895831465             5.3922695948             0.3344088993
      275  1             2.0449998216            14.0946621969             0.0942102576
      276  1             9.2806042894             5.1039172322             1.7812234090
      277  1            10.0879292500             9.3858308983             0.8980788059
      278  1            12.5843329617             4.1493732313             7.1319265020
      279  1            13.4723196491             9.9189018635            13.0409274106
      280  1            11.5652260562             7.2809369705            11.0058319378
      281  1            10.0277993495             0.2352103366             7.2169539670
      282  1             2.4252513346             7.0819819276             8.5406215989
      283  1             6.6974461025             3.2071773814            12.6518437601
      284  1             4.8303630867             0.9903139160             1.2920569526
      285  1            12.2273345128            10.9159286763             9.7406558775
      286  1             8.4083855193             0.4210186403             6.9036562995
      287  1             1.8601835122            13.5417857918            14.1498747520
      288  1            10.7075047690             8.8822318198            12.6417081764
      289  1            13.8678019561            11.7032126142             4.7711241693
      290  1            11.4516391493             5.4348076864             1.6657838143
      291  1            13.6964768099             6.7295058052            12.0556095108
      292  1            13.0757557347             4.6496513082             8.6416084644
      293  1            13.1906021006             8.7294799903             9.1210320566
      294  1             3.1379531383             3.0011670594            12.2374625043
      295  1            13.3673661015             9.8499722823             4.7152166473
      296  1            10.3722107609             1.2437782676             4.1067370622
      297  1             9.9515572531             6.5623226025            12.4505861273
      298  1             3.2712150170            11.7727422103             5.7262312085
      299  1            13.7631196595             8.0193957834             8.3064894733
      300  1             5.5160174522             0.7373634154            10.0551592639
      301  1             7.8164259812             5.4624284182            12.5193515611
      302  1             3.9305471609            13.0390154984             1.9490755577
      303  1             4.7257428030             7.9571921557            11.4444252930
      304  1             6.6931230498             3.0090755985            10.5650796497
      305  1             3.8139422531             0.2970395282            12.2574259664
      306  1             3.8893620068             2.3453250797             9.8380910218
      307  1            11.2674563159             4.9446034380             0.7384048151
      308  1             3.9457448110            10.2710877777            13.8859895906
      309  1             9.0936367780             9.1108638641             0.1617763357
      310  1             0.9526031008            13.0539389174             3.1482523937
      311  1             2.6896400788             6.5821765691             8.0297930237
      312  1             0.0652749524             1.9249920499             8.0193087407
      313  1             9.2215709362             6.3862766688             1.8142273194
      314  1             0.6927112833             3.0134126859            13.5841151475
      315  1             1.9345777179             9.2770634642             4.2783424194
      316  1            10.9951377494             4.0573433220            13.3821457975
      317  1            11.7857812050             6.1325468546            13.2647843261
      318  1             1.1745441923            12.6928154935             9.1592019057
      319  1            11.3162396210             9.6619398348             7.4039985236
      320  1             0.8477216627             5.4284099153             3.9790966673
      321  1            11.7576071612             4.2325245909             9.6327434147
      322  1             1.9834108250            10.0140611062            12.0122177628
      323  1            10.5328679776             6.2177523893            10.0927779551
      324  1             7.9456460488             3.3337082186             4.2435924225
      325  1            10.5027682446             9.3006551179            13.7959630831
      326  1             9.0716755108             3.1247363184            10.0519250670
      327  1            13.1984657671            10.4821567432             6.8683635828
      328  1             8.1773454334             2.1167848422             3.8291951696
      329  1            12.5475270784             8.2873947265             6.3565031823
      330  1             5.4118893794            10.0088627041             6.7176585543
      331  1             1.3287289516             1.9125404032            13.4288760970
      332  1            13.4548640636             5.5486134124             8.2862351356
      333  1             5.4733178100            11.4342250996             6.5832108127
      334  1             9.4334842743             8.7063211448            10.9423466164
      335  1            10.5528852722             1.5679434422             6.1697664962
      336  1             7.8698187678             8.3420320520             6.3368149820
      337  1             4.5667182590             9.4607304379             4.5570835489